s 0.000450000 _1_ MAC  --- 0 PRRQ 52 [0 ffffffff 1 0] 
x 0.000866000 _1_ MAC  --- 0 PRRQ 52 [0 ffffffff 1 0] 
r 0.000866003 _0_ MAC  --- 0 PRRQ 52 [0 ffffffff 1 0] 
r 0.000866027 _9_ MAC  --- 0 PRRQ 52 [0 ffffffff 1 0] 
s 0.001116027 _9_ MAC  --- 0 BCN 72 [0 ffffffff 9 0] 
x 0.001692027 _9_ MAC  --- 0 BCN 72 [0 ffffffff 9 0] 
r 0.001692030 _8_ MAC  --- 0 BCN 72 [0 ffffffff 9 0] 
r 0.001692033 _7_ MAC  --- 0 BCN 72 [0 ffffffff 9 0] 
r 0.001692037 _6_ MAC  --- 0 BCN 72 [0 ffffffff 9 0] 
r 0.001692040 _5_ MAC  --- 0 BCN 72 [0 ffffffff 9 0] 
r 0.001692043 _4_ MAC  --- 0 BCN 72 [0 ffffffff 9 0] 
r 0.001692047 _3_ MAC  --- 0 BCN 72 [0 ffffffff 9 0] 
r 0.001692050 _2_ MAC  --- 0 BCN 72 [0 ffffffff 9 0] 
r 0.001692053 _1_ MAC  --- 0 BCN 72 [0 ffffffff 9 0] 
s 0.001742027 _9_ MAC  --- 0 PRRP 72 [0 1 9 0] 
x 0.002318027 _9_ MAC  --- 0 PRRP 72 [0 1 9 0] 
r 0.002318053 _1_ MAC  --- 0 PRRP 72 [0 1 9 0] 
s 0.002328053 _1_ MAC  --- 0 ACK 38 [0 9 0 0] 
x 0.002632053 _1_ MAC  --- 0 ACK 38 [0 9 0 0] 
r 0.002632080 _9_ MAC  --- 0 ACK 38 [0 9 0 0] 
s 0.002802057 _0_ MAC  --- 0 BCN 72 [0 ffffffff 0 0] 
x 0.003378057 _0_ MAC  --- 0 BCN 72 [0 ffffffff 0 0] 
r 0.003378060 _1_ MAC  --- 0 BCN 72 [0 ffffffff 0 0] 
r 0.003378063 _2_ MAC  --- 0 BCN 72 [0 ffffffff 0 0] 
r 0.003378067 _3_ MAC  --- 0 BCN 72 [0 ffffffff 0 0] 
r 0.003378070 _4_ MAC  --- 0 BCN 72 [0 ffffffff 0 0] 
r 0.003378073 _5_ MAC  --- 0 BCN 72 [0 ffffffff 0 0] 
r 0.003378077 _6_ MAC  --- 0 BCN 72 [0 ffffffff 0 0] 
r 0.003378080 _7_ MAC  --- 0 BCN 72 [0 ffffffff 0 0] 
r 0.003378083 _8_ MAC  --- 0 BCN 72 [0 ffffffff 0 0] 
s 0.003628057 _0_ MAC  --- 0 PRRP 72 [0 1 0 0] 
x 0.004204057 _0_ MAC  --- 0 PRRP 72 [0 1 0 0] 
r 0.004204060 _1_ MAC  --- 0 PRRP 72 [0 1 0 0] 
s 0.004214060 _1_ MAC  --- 0 ACK 38 [0 0 0 0] 
x 0.004518060 _1_ MAC  --- 0 ACK 38 [0 0 0 0] 
r 0.004518063 _0_ MAC  --- 0 ACK 38 [0 0 0 0] 
s 0.016860000 _1_ MAC  --- 0 AUTH 58 [0 0 1 0] 
x 0.017324000 _1_ MAC  --- 0 AUTH 58 [0 0 1 0] 
r 0.017324003 _0_ MAC  --- 0 AUTH 58 [0 0 1 0] 
s 0.017634003 _0_ MAC  --- 0 AUTH 58 [13a 1 0 0] 
x 0.018098003 _0_ MAC  --- 0 AUTH 58 [13a 1 0 0] 
r 0.018098007 _1_ MAC  --- 0 AUTH 58 [13a 1 0 0] 
s 0.018108007 _1_ MAC  --- 0 ACK 38 [0 0 0 0] 
x 0.018412007 _1_ MAC  --- 0 ACK 38 [0 0 0 0] 
r 0.018412010 _0_ MAC  --- 0 ACK 38 [0 0 0 0] 
s 0.029502007 _1_ MAC  --- 0 ACRQ 52 [0 0 1 0] 
x 0.029918007 _1_ MAC  --- 0 ACRQ 52 [0 0 1 0] 
r 0.029918010 _0_ MAC  --- 0 ACRQ 52 [0 0 1 0] 
s 0.030508010 _0_ MAC  --- 0 ACRP 54 [0 1 0 0] 
x 0.030940010 _0_ MAC  --- 0 ACRP 54 [0 1 0 0] 
r 0.030940013 _1_ MAC  --- 0 ACRP 54 [0 1 0 0] 
s 0.030950013 _1_ MAC  --- 0 ACK 38 [0 0 0 0] 
x 0.031254013 _1_ MAC  --- 0 ACK 38 [0 0 0 0] 
r 0.031254017 _0_ MAC  --- 0 ACK 38 [0 0 0 0] 
s 0.120210000 _5_ MAC  --- 0 AUTH 58 [0 9 5 0] 
x 0.120674000 _5_ MAC  --- 0 AUTH 58 [0 9 5 0] 
r 0.120674013 _9_ MAC  --- 0 AUTH 58 [0 9 5 0] 
s 0.120804003 _4_ MAC  --- 0 AUTH 58 [0 0 4 0] 
x 0.121268003 _4_ MAC  --- 0 AUTH 58 [0 0 4 0] 
r 0.121268017 _0_ MAC  --- 0 AUTH 58 [0 0 4 0] 
s 0.121398017 _8_ MAC  --- 0 AUTH 58 [0 9 8 0] 
x 0.121862017 _8_ MAC  --- 0 AUTH 58 [0 9 8 0] 
D 0.121862020 _9_ MAC  BSY 0 AUTH 58 [0 9 8 0] 
s 0.121932020 _7_ MAC  --- 0 AUTH 58 [0 9 7 0] 
x 0.122396020 _7_ MAC  --- 0 AUTH 58 [0 9 7 0] 
D 0.122396027 _9_ MAC  BSY 0 AUTH 58 [0 9 7 0] 
s 0.122466027 _9_ MAC  --- 0 AUTH 58 [13a 5 9 0] 
s 0.122466033 _3_ MAC  --- 0 AUTH 58 [0 0 3 0] 
D 0.122466057 _0_ MAC  COL 0 AUTH 58 [0 0 3 0] 
x 0.122930027 _9_ MAC  --- 0 AUTH 58 [13a 5 9 0] 
x 0.122930033 _3_ MAC  --- 0 AUTH 58 [0 0 3 0] 
D 0.122930040 _5_ MAC  COL 0 AUTH 58 [13a 5 9 0] 
s 0.123444057 _0_ MAC  --- 0 AUTH 58 [13a 4 0 0] 
x 0.123908057 _0_ MAC  --- 0 AUTH 58 [13a 4 0 0] 
r 0.123908070 _4_ MAC  --- 0 AUTH 58 [13a 4 0 0] 
s 0.123918070 _4_ MAC  --- 0 ACK 38 [0 0 0 0] 
x 0.124222070 _4_ MAC  --- 0 ACK 38 [0 0 0 0] 
r 0.124222083 _0_ MAC  --- 0 ACK 38 [0 0 0 0] 
s 0.124292077 _6_ MAC  --- 0 AUTH 58 [0 9 6 0] 
x 0.124756077 _6_ MAC  --- 0 AUTH 58 [0 9 6 0] 
r 0.124756087 _9_ MAC  --- 0 AUTH 58 [0 9 6 0] 
s 0.125246087 _9_ MAC  --- 0 AUTH 58 [13a 6 9 0] 
x 0.125710087 _9_ MAC  --- 0 AUTH 58 [13a 6 9 0] 
r 0.125710097 _6_ MAC  --- 0 AUTH 58 [13a 6 9 0] 
s 0.125720097 _6_ MAC  --- 0 ACK 38 [0 9 0 0] 
x 0.126024097 _6_ MAC  --- 0 ACK 38 [0 9 0 0] 
r 0.126024107 _9_ MAC  --- 0 ACK 38 [0 9 0 0] 
s 0.132772000 _5_ MAC  --- 0 AUTH 58 [0 9 5 0] 
x 0.133236000 _5_ MAC  --- 0 AUTH 58 [0 9 5 0] 
r 0.133236013 _9_ MAC  --- 0 AUTH 58 [0 9 5 0] 
s 0.133686013 _9_ MAC  --- 0 AUTH 58 [13a 5 9 0] 
x 0.134150013 _9_ MAC  --- 0 AUTH 58 [13a 5 9 0] 
r 0.134150027 _5_ MAC  --- 0 AUTH 58 [13a 5 9 0] 
s 0.134160027 _5_ MAC  --- 0 ACK 38 [0 9 0 0] 
x 0.134464027 _5_ MAC  --- 0 ACK 38 [0 9 0 0] 
r 0.134464040 _9_ MAC  --- 0 ACK 38 [0 9 0 0] 
s 0.134554033 _3_ MAC  --- 0 AUTH 58 [0 0 3 0] 
x 0.135018033 _3_ MAC  --- 0 AUTH 58 [0 0 3 0] 
r 0.135018043 _0_ MAC  --- 0 AUTH 58 [0 0 3 0] 
s 0.135268050 _8_ MAC  --- 0 AUTH 58 [0 9 8 0] 
x 0.135732050 _8_ MAC  --- 0 AUTH 58 [0 9 8 0] 
r 0.135732053 _9_ MAC  --- 0 AUTH 58 [0 9 8 0] 
s 0.135842053 _9_ MAC  --- 0 AUTH 58 [13a 8 9 0] 
x 0.136306053 _9_ MAC  --- 0 AUTH 58 [13a 8 9 0] 
r 0.136306057 _8_ MAC  --- 0 AUTH 58 [13a 8 9 0] 
s 0.136316057 _8_ MAC  --- 0 ACK 38 [0 9 0 0] 
x 0.136620057 _8_ MAC  --- 0 ACK 38 [0 9 0 0] 
r 0.136620060 _9_ MAC  --- 0 ACK 38 [0 9 0 0] 
s 0.136730060 _7_ MAC  --- 0 AUTH 58 [0 9 7 0] 
x 0.137194060 _7_ MAC  --- 0 AUTH 58 [0 9 7 0] 
r 0.137194067 _9_ MAC  --- 0 AUTH 58 [0 9 7 0] 
s 0.137264067 _9_ MAC  --- 0 AUTH 58 [13a 7 9 0] 
s 0.137264070 _4_ MAC  --- 0 ACRQ 52 [0 0 4 0] 
D 0.137264097 _0_ MAC  COL 0 ACRQ 52 [0 0 4 0] 
x 0.137680070 _4_ MAC  --- 0 ACRQ 52 [0 0 4 0] 
x 0.137728067 _9_ MAC  --- 0 AUTH 58 [13a 7 9 0] 
D 0.137728073 _7_ MAC  COL 0 AUTH 58 [13a 7 9 0] 
s 0.138202097 _0_ MAC  --- 0 AUTH 58 [13a 3 0 0] 
x 0.138666097 _0_ MAC  --- 0 AUTH 58 [13a 3 0 0] 
r 0.138666107 _3_ MAC  --- 0 AUTH 58 [13a 3 0 0] 
s 0.138676107 _3_ MAC  --- 0 ACK 38 [0 0 0 0] 
x 0.138980107 _3_ MAC  --- 0 ACK 38 [0 0 0 0] 
r 0.138980117 _0_ MAC  --- 0 ACK 38 [0 0 0 0] 
s 0.139230117 _6_ MAC  --- 0 ACRQ 52 [0 9 6 0] 
x 0.139646117 _6_ MAC  --- 0 ACRQ 52 [0 9 6 0] 
r 0.139646127 _9_ MAC  --- 0 ACRQ 52 [0 9 6 0] 
s 0.140216127 _9_ MAC  --- 0 ACRP 54 [0 6 9 0] 
x 0.140648127 _9_ MAC  --- 0 ACRP 54 [0 6 9 0] 
r 0.140648137 _6_ MAC  --- 0 ACRP 54 [0 6 9 0] 
s 0.140658137 _6_ MAC  --- 0 ACK 38 [0 9 0 0] 
x 0.140962137 _6_ MAC  --- 0 ACK 38 [0 9 0 0] 
r 0.140962147 _9_ MAC  --- 0 ACK 38 [0 9 0 0] 
s 0.145714027 _5_ MAC  --- 0 ACRQ 52 [0 9 5 0] 
x 0.146130027 _5_ MAC  --- 0 ACRQ 52 [0 9 5 0] 
r 0.146130040 _9_ MAC  --- 0 ACRQ 52 [0 9 5 0] 
s 0.146760040 _9_ MAC  --- 0 ACRP 54 [0 5 9 0] 
x 0.147192040 _9_ MAC  --- 0 ACRP 54 [0 5 9 0] 
r 0.147192053 _5_ MAC  --- 0 ACRP 54 [0 5 9 0] 
s 0.147202053 _5_ MAC  --- 0 ACK 38 [0 9 0 0] 
x 0.147506053 _5_ MAC  --- 0 ACK 38 [0 9 0 0] 
r 0.147506067 _9_ MAC  --- 0 ACK 38 [0 9 0 0] 
s 0.147790057 _8_ MAC  --- 0 ACRQ 52 [0 9 8 0] 
x 0.148206057 _8_ MAC  --- 0 ACRQ 52 [0 9 8 0] 
r 0.148206060 _9_ MAC  --- 0 ACRQ 52 [0 9 8 0] 
s 0.148596060 _9_ MAC  --- 0 ACRP 54 [0 8 9 0] 
x 0.149028060 _9_ MAC  --- 0 ACRP 54 [0 8 9 0] 
r 0.149028063 _8_ MAC  --- 0 ACRP 54 [0 8 9 0] 
s 0.149038063 _8_ MAC  --- 0 ACK 38 [0 9 0 0] 
x 0.149342063 _8_ MAC  --- 0 ACK 38 [0 9 0 0] 
r 0.149342067 _9_ MAC  --- 0 ACK 38 [0 9 0 0] 
s 0.149672077 _4_ MAC  --- 0 ACRQ 52 [0 0 4 0] 
x 0.150088077 _4_ MAC  --- 0 ACRQ 52 [0 0 4 0] 
r 0.150088090 _0_ MAC  --- 0 ACRQ 52 [0 0 4 0] 
s 0.150358087 _7_ MAC  --- 0 AUTH 58 [0 9 7 0] 
x 0.150822087 _7_ MAC  --- 0 AUTH 58 [0 9 7 0] 
r 0.150822093 _9_ MAC  --- 0 AUTH 58 [0 9 7 0] 
s 0.150872093 _9_ MAC  --- 0 AUTH 58 [13a 7 9 0] 
x 0.151336093 _9_ MAC  --- 0 AUTH 58 [13a 7 9 0] 
r 0.151336100 _7_ MAC  --- 0 AUTH 58 [13a 7 9 0] 
s 0.151346100 _7_ MAC  --- 0 ACK 38 [0 9 0 0] 
x 0.151650100 _7_ MAC  --- 0 ACK 38 [0 9 0 0] 
r 0.151650107 _9_ MAC  --- 0 ACK 38 [0 9 0 0] 
s 0.151760113 _3_ MAC  --- 0 ACRQ 52 [0 0 3 0] 
x 0.152176113 _3_ MAC  --- 0 ACRQ 52 [0 0 3 0] 
D 0.152176123 _0_ MAC  BSY 0 ACRQ 52 [0 0 3 0] 
s 0.152446123 _0_ MAC  --- 0 ACRP 54 [0 4 0 0] 
x 0.152878123 _0_ MAC  --- 0 ACRP 54 [0 4 0 0] 
r 0.152878137 _4_ MAC  --- 0 ACRP 54 [0 4 0 0] 
s 0.152888137 _4_ MAC  --- 0 ACK 38 [0 0 0 0] 
x 0.153192137 _4_ MAC  --- 0 ACK 38 [0 0 0 0] 
r 0.153192150 _0_ MAC  --- 0 ACK 38 [0 0 0 0] 
s 0.162860100 _7_ MAC  --- 0 ACRQ 52 [0 9 7 0] 
x 0.163276100 _7_ MAC  --- 0 ACRQ 52 [0 9 7 0] 
r 0.163276107 _9_ MAC  --- 0 ACRQ 52 [0 9 7 0] 
s 0.163546107 _9_ MAC  --- 0 ACRP 54 [0 7 9 0] 
x 0.163978107 _9_ MAC  --- 0 ACRP 54 [0 7 9 0] 
r 0.163978113 _7_ MAC  --- 0 ACRP 54 [0 7 9 0] 
s 0.163988113 _7_ MAC  --- 0 ACK 38 [0 9 0 0] 
x 0.164292113 _7_ MAC  --- 0 ACK 38 [0 9 0 0] 
r 0.164292120 _9_ MAC  --- 0 ACK 38 [0 9 0 0] 
s 0.164422127 _3_ MAC  --- 0 ACRQ 52 [0 0 3 0] 
x 0.164838127 _3_ MAC  --- 0 ACRQ 52 [0 0 3 0] 
r 0.164838137 _0_ MAC  --- 0 ACRQ 52 [0 0 3 0] 
s 0.164888137 _0_ MAC  --- 0 ACRP 54 [0 3 0 0] 
x 0.165320137 _0_ MAC  --- 0 ACRP 54 [0 3 0 0] 
r 0.165320147 _3_ MAC  --- 0 ACRP 54 [0 3 0 0] 
s 0.165330147 _3_ MAC  --- 0 ACK 38 [0 0 0 0] 
x 0.165634147 _3_ MAC  --- 0 ACK 38 [0 0 0 0] 
r 0.165634157 _0_ MAC  --- 0 ACK 38 [0 0 0 0] 
s 0.200390000 _9_ MAC  --- 0 BCN 72 [0 ffffffff 9 0] 
x 0.200966000 _9_ MAC  --- 0 BCN 72 [0 ffffffff 9 0] 
r 0.200966003 _8_ MAC  --- 0 BCN 72 [0 ffffffff 9 0] 
r 0.200966007 _7_ MAC  --- 0 BCN 72 [0 ffffffff 9 0] 
r 0.200966010 _6_ MAC  --- 0 BCN 72 [0 ffffffff 9 0] 
r 0.200966013 _5_ MAC  --- 0 BCN 72 [0 ffffffff 9 0] 
r 0.200966017 _4_ MAC  --- 0 BCN 72 [0 ffffffff 9 0] 
r 0.200966020 _3_ MAC  --- 0 BCN 72 [0 ffffffff 9 0] 
r 0.200966023 _2_ MAC  --- 0 BCN 72 [0 ffffffff 9 0] 
r 0.200966027 _1_ MAC  --- 0 BCN 72 [0 ffffffff 9 0] 
s 0.201296030 _0_ MAC  --- 0 BCN 72 [0 ffffffff 0 0] 
x 0.201872030 _0_ MAC  --- 0 BCN 72 [0 ffffffff 0 0] 
r 0.201872033 _1_ MAC  --- 0 BCN 72 [0 ffffffff 0 0] 
r 0.201872037 _2_ MAC  --- 0 BCN 72 [0 ffffffff 0 0] 
r 0.201872040 _3_ MAC  --- 0 BCN 72 [0 ffffffff 0 0] 
r 0.201872043 _4_ MAC  --- 0 BCN 72 [0 ffffffff 0 0] 
r 0.201872047 _5_ MAC  --- 0 BCN 72 [0 ffffffff 0 0] 
r 0.201872050 _6_ MAC  --- 0 BCN 72 [0 ffffffff 0 0] 
r 0.201872053 _7_ MAC  --- 0 BCN 72 [0 ffffffff 0 0] 
r 0.201872057 _8_ MAC  --- 0 BCN 72 [0 ffffffff 0 0] 
s 0.400330000 _9_ MAC  --- 0 BCN 72 [0 ffffffff 9 0] 
x 0.400906000 _9_ MAC  --- 0 BCN 72 [0 ffffffff 9 0] 
r 0.400906003 _8_ MAC  --- 0 BCN 72 [0 ffffffff 9 0] 
r 0.400906007 _7_ MAC  --- 0 BCN 72 [0 ffffffff 9 0] 
r 0.400906010 _6_ MAC  --- 0 BCN 72 [0 ffffffff 9 0] 
r 0.400906013 _5_ MAC  --- 0 BCN 72 [0 ffffffff 9 0] 
r 0.400906017 _4_ MAC  --- 0 BCN 72 [0 ffffffff 9 0] 
r 0.400906020 _3_ MAC  --- 0 BCN 72 [0 ffffffff 9 0] 
r 0.400906023 _2_ MAC  --- 0 BCN 72 [0 ffffffff 9 0] 
r 0.400906027 _1_ MAC  --- 0 BCN 72 [0 ffffffff 9 0] 
s 0.401076030 _0_ MAC  --- 0 BCN 72 [0 ffffffff 0 0] 
x 0.401652030 _0_ MAC  --- 0 BCN 72 [0 ffffffff 0 0] 
r 0.401652033 _1_ MAC  --- 0 BCN 72 [0 ffffffff 0 0] 
r 0.401652037 _2_ MAC  --- 0 BCN 72 [0 ffffffff 0 0] 
r 0.401652040 _3_ MAC  --- 0 BCN 72 [0 ffffffff 0 0] 
r 0.401652043 _4_ MAC  --- 0 BCN 72 [0 ffffffff 0 0] 
r 0.401652047 _5_ MAC  --- 0 BCN 72 [0 ffffffff 0 0] 
r 0.401652050 _6_ MAC  --- 0 BCN 72 [0 ffffffff 0 0] 
r 0.401652053 _7_ MAC  --- 0 BCN 72 [0 ffffffff 0 0] 
r 0.401652057 _8_ MAC  --- 0 BCN 72 [0 ffffffff 0 0] 
s 0.600550000 _9_ MAC  --- 0 BCN 72 [0 ffffffff 9 0] 
x 0.601126000 _9_ MAC  --- 0 BCN 72 [0 ffffffff 9 0] 
r 0.601126003 _8_ MAC  --- 0 BCN 72 [0 ffffffff 9 0] 
r 0.601126007 _7_ MAC  --- 0 BCN 72 [0 ffffffff 9 0] 
r 0.601126010 _6_ MAC  --- 0 BCN 72 [0 ffffffff 9 0] 
r 0.601126013 _5_ MAC  --- 0 BCN 72 [0 ffffffff 9 0] 
r 0.601126017 _4_ MAC  --- 0 BCN 72 [0 ffffffff 9 0] 
r 0.601126020 _3_ MAC  --- 0 BCN 72 [0 ffffffff 9 0] 
r 0.601126023 _2_ MAC  --- 0 BCN 72 [0 ffffffff 9 0] 
r 0.601126027 _1_ MAC  --- 0 BCN 72 [0 ffffffff 9 0] 
s 0.601256030 _0_ MAC  --- 0 BCN 72 [0 ffffffff 0 0] 
x 0.601832030 _0_ MAC  --- 0 BCN 72 [0 ffffffff 0 0] 
r 0.601832033 _1_ MAC  --- 0 BCN 72 [0 ffffffff 0 0] 
r 0.601832037 _2_ MAC  --- 0 BCN 72 [0 ffffffff 0 0] 
r 0.601832040 _3_ MAC  --- 0 BCN 72 [0 ffffffff 0 0] 
r 0.601832043 _4_ MAC  --- 0 BCN 72 [0 ffffffff 0 0] 
r 0.601832047 _5_ MAC  --- 0 BCN 72 [0 ffffffff 0 0] 
r 0.601832050 _6_ MAC  --- 0 BCN 72 [0 ffffffff 0 0] 
r 0.601832053 _7_ MAC  --- 0 BCN 72 [0 ffffffff 0 0] 
r 0.601832057 _8_ MAC  --- 0 BCN 72 [0 ffffffff 0 0] 
s 0.800170000 _9_ MAC  --- 0 BCN 72 [0 ffffffff 9 0] 
x 0.800746000 _9_ MAC  --- 0 BCN 72 [0 ffffffff 9 0] 
r 0.800746003 _8_ MAC  --- 0 BCN 72 [0 ffffffff 9 0] 
r 0.800746007 _7_ MAC  --- 0 BCN 72 [0 ffffffff 9 0] 
r 0.800746010 _6_ MAC  --- 0 BCN 72 [0 ffffffff 9 0] 
r 0.800746013 _5_ MAC  --- 0 BCN 72 [0 ffffffff 9 0] 
r 0.800746017 _4_ MAC  --- 0 BCN 72 [0 ffffffff 9 0] 
r 0.800746020 _3_ MAC  --- 0 BCN 72 [0 ffffffff 9 0] 
r 0.800746023 _2_ MAC  --- 0 BCN 72 [0 ffffffff 9 0] 
r 0.800746027 _1_ MAC  --- 0 BCN 72 [0 ffffffff 9 0] 
s 0.801056030 _0_ MAC  --- 0 BCN 72 [0 ffffffff 0 0] 
x 0.801632030 _0_ MAC  --- 0 BCN 72 [0 ffffffff 0 0] 
r 0.801632033 _1_ MAC  --- 0 BCN 72 [0 ffffffff 0 0] 
r 0.801632037 _2_ MAC  --- 0 BCN 72 [0 ffffffff 0 0] 
r 0.801632040 _3_ MAC  --- 0 BCN 72 [0 ffffffff 0 0] 
r 0.801632043 _4_ MAC  --- 0 BCN 72 [0 ffffffff 0 0] 
r 0.801632047 _5_ MAC  --- 0 BCN 72 [0 ffffffff 0 0] 
r 0.801632050 _6_ MAC  --- 0 BCN 72 [0 ffffffff 0 0] 
r 0.801632053 _7_ MAC  --- 0 BCN 72 [0 ffffffff 0 0] 
r 0.801632057 _8_ MAC  --- 0 BCN 72 [0 ffffffff 0 0] 
s 1.000430000 _9_ MAC  --- 0 BCN 72 [0 ffffffff 9 0] 
x 1.001006000 _9_ MAC  --- 0 BCN 72 [0 ffffffff 9 0] 
r 1.001006003 _8_ MAC  --- 0 BCN 72 [0 ffffffff 9 0] 
r 1.001006007 _7_ MAC  --- 0 BCN 72 [0 ffffffff 9 0] 
r 1.001006010 _6_ MAC  --- 0 BCN 72 [0 ffffffff 9 0] 
r 1.001006013 _5_ MAC  --- 0 BCN 72 [0 ffffffff 9 0] 
r 1.001006017 _4_ MAC  --- 0 BCN 72 [0 ffffffff 9 0] 
r 1.001006020 _3_ MAC  --- 0 BCN 72 [0 ffffffff 9 0] 
r 1.001006023 _2_ MAC  --- 0 BCN 72 [0 ffffffff 9 0] 
r 1.001006027 _1_ MAC  --- 0 BCN 72 [0 ffffffff 9 0] 
s 1.001176030 _0_ MAC  --- 0 BCN 72 [0 ffffffff 0 0] 
x 1.001752030 _0_ MAC  --- 0 BCN 72 [0 ffffffff 0 0] 
r 1.001752033 _1_ MAC  --- 0 BCN 72 [0 ffffffff 0 0] 
r 1.001752037 _2_ MAC  --- 0 BCN 72 [0 ffffffff 0 0] 
r 1.001752040 _3_ MAC  --- 0 BCN 72 [0 ffffffff 0 0] 
r 1.001752043 _4_ MAC  --- 0 BCN 72 [0 ffffffff 0 0] 
r 1.001752047 _5_ MAC  --- 0 BCN 72 [0 ffffffff 0 0] 
r 1.001752050 _6_ MAC  --- 0 BCN 72 [0 ffffffff 0 0] 
r 1.001752053 _7_ MAC  --- 0 BCN 72 [0 ffffffff 0 0] 
r 1.001752057 _8_ MAC  --- 0 BCN 72 [0 ffffffff 0 0] 
s 1.002002037 _2_ MAC  --- 0 PRRQ 52 [0 ffffffff 2 0] 
x 1.002418037 _2_ MAC  --- 0 PRRQ 52 [0 ffffffff 2 0] 
r 1.002418043 _0_ MAC  --- 0 PRRQ 52 [0 ffffffff 2 0] 
r 1.002418060 _9_ MAC  --- 0 PRRQ 52 [0 ffffffff 2 0] 
s 1.002588060 _9_ MAC  --- 0 PRRP 72 [0 2 9 0] 
x 1.003164060 _9_ MAC  --- 0 PRRP 72 [0 2 9 0] 
r 1.003164083 _2_ MAC  --- 0 PRRP 72 [0 2 9 0] 
s 1.003174083 _2_ MAC  --- 0 ACK 38 [0 9 0 0] 
x 1.003478083 _2_ MAC  --- 0 ACK 38 [0 9 0 0] 
r 1.003478107 _9_ MAC  --- 0 ACK 38 [0 9 0 0] 
s 1.003788090 _0_ MAC  --- 0 PRRP 72 [0 2 0 0] 
x 1.004364090 _0_ MAC  --- 0 PRRP 72 [0 2 0 0] 
r 1.004364097 _2_ MAC  --- 0 PRRP 72 [0 2 0 0] 
s 1.004374097 _2_ MAC  --- 0 ACK 38 [0 0 0 0] 
x 1.004678097 _2_ MAC  --- 0 ACK 38 [0 0 0 0] 
r 1.004678103 _0_ MAC  --- 0 ACK 38 [0 0 0 0] 
s 1.018592037 _2_ MAC  --- 0 AUTH 58 [0 0 2 0] 
x 1.019056037 _2_ MAC  --- 0 AUTH 58 [0 0 2 0] 
r 1.019056043 _0_ MAC  --- 0 AUTH 58 [0 0 2 0] 
s 1.019406043 _0_ MAC  --- 0 AUTH 58 [13a 2 0 0] 
x 1.019870043 _0_ MAC  --- 0 AUTH 58 [13a 2 0 0] 
r 1.019870050 _2_ MAC  --- 0 AUTH 58 [13a 2 0 0] 
s 1.019880050 _2_ MAC  --- 0 ACK 38 [0 0 0 0] 
x 1.020184050 _2_ MAC  --- 0 ACK 38 [0 0 0 0] 
r 1.020184057 _0_ MAC  --- 0 ACK 38 [0 0 0 0] 
s 1.031534050 _2_ MAC  --- 0 ACRQ 52 [0 0 2 0] 
x 1.031950050 _2_ MAC  --- 0 ACRQ 52 [0 0 2 0] 
r 1.031950057 _0_ MAC  --- 0 ACRQ 52 [0 0 2 0] 
s 1.032340057 _0_ MAC  --- 0 ACRP 54 [0 2 0 0] 
x 1.032772057 _0_ MAC  --- 0 ACRP 54 [0 2 0 0] 
r 1.032772063 _2_ MAC  --- 0 ACRP 54 [0 2 0 0] 
s 1.032782063 _2_ MAC  --- 0 ACK 38 [0 0 0 0] 
x 1.033086063 _2_ MAC  --- 0 ACK 38 [0 0 0 0] 
r 1.033086070 _0_ MAC  --- 0 ACK 38 [0 0 0 0] 
s 1.200670000 _9_ MAC  --- 0 BCN 72 [0 ffffffff 9 0] 
x 1.201246000 _9_ MAC  --- 0 BCN 72 [0 ffffffff 9 0] 
r 1.201246003 _8_ MAC  --- 0 BCN 72 [0 ffffffff 9 0] 
r 1.201246007 _7_ MAC  --- 0 BCN 72 [0 ffffffff 9 0] 
r 1.201246010 _6_ MAC  --- 0 BCN 72 [0 ffffffff 9 0] 
r 1.201246013 _5_ MAC  --- 0 BCN 72 [0 ffffffff 9 0] 
r 1.201246017 _4_ MAC  --- 0 BCN 72 [0 ffffffff 9 0] 
r 1.201246020 _3_ MAC  --- 0 BCN 72 [0 ffffffff 9 0] 
r 1.201246023 _2_ MAC  --- 0 BCN 72 [0 ffffffff 9 0] 
r 1.201246027 _1_ MAC  --- 0 BCN 72 [0 ffffffff 9 0] 
s 1.201356030 _0_ MAC  --- 0 BCN 72 [0 ffffffff 0 0] 
x 1.201932030 _0_ MAC  --- 0 BCN 72 [0 ffffffff 0 0] 
r 1.201932033 _1_ MAC  --- 0 BCN 72 [0 ffffffff 0 0] 
r 1.201932037 _2_ MAC  --- 0 BCN 72 [0 ffffffff 0 0] 
r 1.201932040 _3_ MAC  --- 0 BCN 72 [0 ffffffff 0 0] 
r 1.201932043 _4_ MAC  --- 0 BCN 72 [0 ffffffff 0 0] 
r 1.201932047 _5_ MAC  --- 0 BCN 72 [0 ffffffff 0 0] 
r 1.201932050 _6_ MAC  --- 0 BCN 72 [0 ffffffff 0 0] 
r 1.201932053 _7_ MAC  --- 0 BCN 72 [0 ffffffff 0 0] 
r 1.201932057 _8_ MAC  --- 0 BCN 72 [0 ffffffff 0 0] 
s 1.400530000 _9_ MAC  --- 0 BCN 72 [0 ffffffff 9 0] 
x 1.401106000 _9_ MAC  --- 0 BCN 72 [0 ffffffff 9 0] 
r 1.401106003 _8_ MAC  --- 0 BCN 72 [0 ffffffff 9 0] 
r 1.401106007 _7_ MAC  --- 0 BCN 72 [0 ffffffff 9 0] 
r 1.401106010 _6_ MAC  --- 0 BCN 72 [0 ffffffff 9 0] 
r 1.401106013 _5_ MAC  --- 0 BCN 72 [0 ffffffff 9 0] 
r 1.401106017 _4_ MAC  --- 0 BCN 72 [0 ffffffff 9 0] 
r 1.401106020 _3_ MAC  --- 0 BCN 72 [0 ffffffff 9 0] 
r 1.401106023 _2_ MAC  --- 0 BCN 72 [0 ffffffff 9 0] 
r 1.401106027 _1_ MAC  --- 0 BCN 72 [0 ffffffff 9 0] 
s 1.401536030 _0_ MAC  --- 0 BCN 72 [0 ffffffff 0 0] 
x 1.402112030 _0_ MAC  --- 0 BCN 72 [0 ffffffff 0 0] 
r 1.402112033 _1_ MAC  --- 0 BCN 72 [0 ffffffff 0 0] 
r 1.402112037 _2_ MAC  --- 0 BCN 72 [0 ffffffff 0 0] 
r 1.402112040 _3_ MAC  --- 0 BCN 72 [0 ffffffff 0 0] 
r 1.402112043 _4_ MAC  --- 0 BCN 72 [0 ffffffff 0 0] 
r 1.402112047 _5_ MAC  --- 0 BCN 72 [0 ffffffff 0 0] 
r 1.402112050 _6_ MAC  --- 0 BCN 72 [0 ffffffff 0 0] 
r 1.402112053 _7_ MAC  --- 0 BCN 72 [0 ffffffff 0 0] 
r 1.402112057 _8_ MAC  --- 0 BCN 72 [0 ffffffff 0 0] 
s 1.600310000 _9_ MAC  --- 0 BCN 72 [0 ffffffff 9 0] 
x 1.600886000 _9_ MAC  --- 0 BCN 72 [0 ffffffff 9 0] 
r 1.600886003 _8_ MAC  --- 0 BCN 72 [0 ffffffff 9 0] 
r 1.600886007 _7_ MAC  --- 0 BCN 72 [0 ffffffff 9 0] 
r 1.600886010 _6_ MAC  --- 0 BCN 72 [0 ffffffff 9 0] 
r 1.600886013 _5_ MAC  --- 0 BCN 72 [0 ffffffff 9 0] 
r 1.600886017 _4_ MAC  --- 0 BCN 72 [0 ffffffff 9 0] 
r 1.600886020 _3_ MAC  --- 0 BCN 72 [0 ffffffff 9 0] 
r 1.600886023 _2_ MAC  --- 0 BCN 72 [0 ffffffff 9 0] 
r 1.600886027 _1_ MAC  --- 0 BCN 72 [0 ffffffff 9 0] 
s 1.600936030 _0_ MAC  --- 0 BCN 72 [0 ffffffff 0 0] 
x 1.601512030 _0_ MAC  --- 0 BCN 72 [0 ffffffff 0 0] 
r 1.601512033 _1_ MAC  --- 0 BCN 72 [0 ffffffff 0 0] 
r 1.601512037 _2_ MAC  --- 0 BCN 72 [0 ffffffff 0 0] 
r 1.601512040 _3_ MAC  --- 0 BCN 72 [0 ffffffff 0 0] 
r 1.601512043 _4_ MAC  --- 0 BCN 72 [0 ffffffff 0 0] 
r 1.601512047 _5_ MAC  --- 0 BCN 72 [0 ffffffff 0 0] 
r 1.601512050 _6_ MAC  --- 0 BCN 72 [0 ffffffff 0 0] 
r 1.601512053 _7_ MAC  --- 0 BCN 72 [0 ffffffff 0 0] 
r 1.601512057 _8_ MAC  --- 0 BCN 72 [0 ffffffff 0 0] 
s 1.800410000 _9_ MAC  --- 0 BCN 72 [0 ffffffff 9 0] 
x 1.800986000 _9_ MAC  --- 0 BCN 72 [0 ffffffff 9 0] 
r 1.800986003 _8_ MAC  --- 0 BCN 72 [0 ffffffff 9 0] 
r 1.800986007 _7_ MAC  --- 0 BCN 72 [0 ffffffff 9 0] 
r 1.800986010 _6_ MAC  --- 0 BCN 72 [0 ffffffff 9 0] 
r 1.800986013 _5_ MAC  --- 0 BCN 72 [0 ffffffff 9 0] 
r 1.800986017 _4_ MAC  --- 0 BCN 72 [0 ffffffff 9 0] 
r 1.800986020 _3_ MAC  --- 0 BCN 72 [0 ffffffff 9 0] 
r 1.800986023 _2_ MAC  --- 0 BCN 72 [0 ffffffff 9 0] 
r 1.800986027 _1_ MAC  --- 0 BCN 72 [0 ffffffff 9 0] 
s 1.801456030 _0_ MAC  --- 0 BCN 72 [0 ffffffff 0 0] 
x 1.802032030 _0_ MAC  --- 0 BCN 72 [0 ffffffff 0 0] 
r 1.802032033 _1_ MAC  --- 0 BCN 72 [0 ffffffff 0 0] 
r 1.802032037 _2_ MAC  --- 0 BCN 72 [0 ffffffff 0 0] 
r 1.802032040 _3_ MAC  --- 0 BCN 72 [0 ffffffff 0 0] 
r 1.802032043 _4_ MAC  --- 0 BCN 72 [0 ffffffff 0 0] 
r 1.802032047 _5_ MAC  --- 0 BCN 72 [0 ffffffff 0 0] 
r 1.802032050 _6_ MAC  --- 0 BCN 72 [0 ffffffff 0 0] 
r 1.802032053 _7_ MAC  --- 0 BCN 72 [0 ffffffff 0 0] 
r 1.802032057 _8_ MAC  --- 0 BCN 72 [0 ffffffff 0 0] 
s 2.000000000 _4_ AGT  --- 0 cbr 512 [0 0 0 0] ------- [4:0 1:0 32 0] [0] 0 0
s 2.000110000 _9_ MAC  --- 0 BCN 72 [0 ffffffff 9 0] 
x 2.000686000 _9_ MAC  --- 0 BCN 72 [0 ffffffff 9 0] 
r 2.000686003 _8_ MAC  --- 0 BCN 72 [0 ffffffff 9 0] 
r 2.000686007 _7_ MAC  --- 0 BCN 72 [0 ffffffff 9 0] 
r 2.000686010 _6_ MAC  --- 0 BCN 72 [0 ffffffff 9 0] 
r 2.000686013 _5_ MAC  --- 0 BCN 72 [0 ffffffff 9 0] 
r 2.000686017 _4_ MAC  --- 0 BCN 72 [0 ffffffff 9 0] 
r 2.000686020 _3_ MAC  --- 0 BCN 72 [0 ffffffff 9 0] 
r 2.000686023 _2_ MAC  --- 0 BCN 72 [0 ffffffff 9 0] 
r 2.000686027 _1_ MAC  --- 0 BCN 72 [0 ffffffff 9 0] 
s 2.000856017 _4_ MAC  --- 0 ARP 86 [13a 0 4 806] ------- [REQUEST 4/4 0/1]
x 2.001093108 _4_ MAC  --- 0 ARP 86 [13a 0 4 806] ------- [REQUEST 4/4 0/1]
r 2.001093121 _0_ MAC  --- 0 ARP 28 [13a 0 4 806] ------- [REQUEST 4/4 0/1]
r 2.001093121 _0_ MAC  --- 0 ARP 28 [13a 0 4 806] ------- [REQUEST 4/4 0/1]
s 2.001103121 _0_ MAC  --- 0 ACK 38 [0 4 0 0] 
x 2.001407121 _0_ MAC  --- 0 ACK 38 [0 4 0 0] 
r 2.001407134 _4_ MAC  --- 0 ACK 38 [0 4 0 0] 
s 2.001597121 _0_ MAC  --- 0 BCN 72 [0 ffffffff 0 0] 
x 2.002173121 _0_ MAC  --- 0 BCN 72 [0 ffffffff 0 0] 
r 2.002173124 _1_ MAC  --- 0 BCN 72 [0 ffffffff 0 0] 
r 2.002173128 _2_ MAC  --- 0 BCN 72 [0 ffffffff 0 0] 
r 2.002173131 _3_ MAC  --- 0 BCN 72 [0 ffffffff 0 0] 
r 2.002173134 _4_ MAC  --- 0 BCN 72 [0 ffffffff 0 0] 
r 2.002173138 _5_ MAC  --- 0 BCN 72 [0 ffffffff 0 0] 
r 2.002173141 _6_ MAC  --- 0 BCN 72 [0 ffffffff 0 0] 
r 2.002173144 _7_ MAC  --- 0 BCN 72 [0 ffffffff 0 0] 
r 2.002173148 _8_ MAC  --- 0 BCN 72 [0 ffffffff 0 0] 
s 2.002283121 _0_ MAC  --- 0 ARP 86 [0 ffffffff 0 800] ------- [REQUEST 4/4 0/1]
x 2.002971121 _0_ MAC  --- 0 ARP 86 [0 ffffffff 0 800] ------- [REQUEST 4/4 0/1]
r 2.002971124 _1_ MAC  --- 0 ARP 28 [0 ffffffff 0 800] ------- [REQUEST 4/4 0/1]
r 2.002971128 _2_ MAC  --- 0 ARP 28 [0 ffffffff 0 800] ------- [REQUEST 4/4 0/1]
r 2.002971131 _3_ MAC  --- 0 ARP 28 [0 ffffffff 0 800] ------- [REQUEST 4/4 0/1]
r 2.002971134 _4_ MAC  --- 0 ARP 28 [0 ffffffff 0 800] ------- [REQUEST 4/4 0/1]
r 2.002971138 _5_ MAC  --- 0 ARP 28 [0 ffffffff 0 800] ------- [REQUEST 4/4 0/1]
r 2.002971141 _6_ MAC  --- 0 ARP 28 [0 ffffffff 0 800] ------- [REQUEST 4/4 0/1]
r 2.002971144 _7_ MAC  --- 0 ARP 28 [0 ffffffff 0 800] ------- [REQUEST 4/4 0/1]
r 2.002971148 _8_ MAC  --- 0 ARP 28 [0 ffffffff 0 800] ------- [REQUEST 4/4 0/1]
r 2.002971151 _9_ MAC  --- 0 ARP 28 [0 ffffffff 0 800] ------- [REQUEST 4/4 0/1]
s 2.003626124 _1_ MAC  --- 0 ARP 86 [13a 0 1 806] ------- [REPLY 1/1 4/4]
x 2.003863215 _1_ MAC  --- 0 ARP 86 [13a 0 1 806] ------- [REPLY 1/1 4/4]
r 2.003863218 _0_ MAC  --- 0 ARP 28 [13a 0 1 806] ------- [REPLY 1/1 4/4]
s 2.003873218 _0_ MAC  --- 0 ACK 38 [0 1 0 0] 
x 2.004177218 _0_ MAC  --- 0 ACK 38 [0 1 0 0] 
r 2.004177222 _1_ MAC  --- 0 ACK 38 [0 1 0 0] 
s 2.004647218 _0_ MAC  --- 0 ARP 86 [13a 4 0 800] ------- [REPLY 1/1 4/4]
x 2.004884309 _0_ MAC  --- 0 ARP 86 [13a 4 0 800] ------- [REPLY 1/1 4/4]
r 2.004884323 _4_ MAC  --- 0 ARP 28 [13a 4 0 800] ------- [REPLY 1/1 4/4]
s 2.004894323 _4_ MAC  --- 0 ACK 38 [0 0 0 0] 
x 2.005198323 _4_ MAC  --- 0 ACK 38 [0 0 0 0] 
r 2.005198336 _0_ MAC  --- 0 ACK 38 [0 0 0 0] 
s 2.005268323 _4_ MAC  --- 0 cbr 570 [13a 0 4 800] ------- [4:0 1:0 32 0] [0] 0 0
x 2.005857414 _4_ MAC  --- 0 cbr 570 [13a 0 4 800] ------- [4:0 1:0 32 0] [0] 0 0
r 2.005857427 _0_ MAC  --- 0 cbr 512 [13a 0 4 800] ------- [4:0 1:0 32 1] [0] 1 0
s 2.005867427 _0_ MAC  --- 0 ACK 38 [0 4 0 0] 
x 2.006171427 _0_ MAC  --- 0 ACK 38 [0 4 0 0] 
r 2.006171440 _4_ MAC  --- 0 ACK 38 [0 4 0 0] 
s 2.006261427 _0_ MAC  --- 0 cbr 570 [13a 1 0 800] ------- [4:0 1:0 32 1] [0] 1 0
x 2.006850518 _0_ MAC  --- 0 cbr 570 [13a 1 0 800] ------- [4:0 1:0 32 1] [0] 1 0
r 2.006850521 _1_ MAC  --- 0 cbr 512 [13a 1 0 800] ------- [4:0 1:0 32 1] [0] 2 0
s 2.006860521 _1_ MAC  --- 0 ACK 38 [0 0 0 0] 
r 2.006875521 _1_ AGT  --- 0 cbr 512 [13a 1 0 800] ------- [4:0 1:0 32 1] [0] 2 0
x 2.007164521 _1_ MAC  --- 0 ACK 38 [0 0 0 0] 
r 2.007164525 _0_ MAC  --- 0 ACK 38 [0 0 0 0] 
s 2.064000000 _4_ AGT  --- 1 cbr 512 [0 0 0 0] ------- [4:0 1:0 32 0] [1] 0 0
s 2.064095000 _4_ MAC  --- 1 cbr 570 [13a 0 4 800] ------- [4:0 1:0 32 0] [1] 0 0
x 2.064684091 _4_ MAC  --- 1 cbr 570 [13a 0 4 800] ------- [4:0 1:0 32 0] [1] 0 0
r 2.064684104 _0_ MAC  --- 1 cbr 512 [13a 0 4 800] ------- [4:0 1:0 32 1] [1] 1 0
s 2.064694104 _0_ MAC  --- 0 ACK 38 [0 4 0 0] 
x 2.064998104 _0_ MAC  --- 0 ACK 38 [0 4 0 0] 
r 2.064998118 _4_ MAC  --- 0 ACK 38 [0 4 0 0] 
s 2.065428104 _0_ MAC  --- 1 cbr 570 [13a 1 0 800] ------- [4:0 1:0 32 1] [1] 1 0
x 2.066017195 _0_ MAC  --- 1 cbr 570 [13a 1 0 800] ------- [4:0 1:0 32 1] [1] 1 0
r 2.066017198 _1_ MAC  --- 1 cbr 512 [13a 1 0 800] ------- [4:0 1:0 32 1] [1] 2 0
s 2.066027198 _1_ MAC  --- 0 ACK 38 [0 0 0 0] 
r 2.066042198 _1_ AGT  --- 1 cbr 512 [13a 1 0 800] ------- [4:0 1:0 32 1] [1] 2 0
x 2.066331198 _1_ MAC  --- 0 ACK 38 [0 0 0 0] 
r 2.066331202 _0_ MAC  --- 0 ACK 38 [0 0 0 0] 
s 2.128000000 _4_ AGT  --- 2 cbr 512 [0 0 0 0] ------- [4:0 1:0 32 0] [2] 0 0
s 2.128555000 _4_ MAC  --- 2 cbr 570 [13a 0 4 800] ------- [4:0 1:0 32 0] [2] 0 0
x 2.129144091 _4_ MAC  --- 2 cbr 570 [13a 0 4 800] ------- [4:0 1:0 32 0] [2] 0 0
r 2.129144104 _0_ MAC  --- 2 cbr 512 [13a 0 4 800] ------- [4:0 1:0 32 1] [2] 1 0
s 2.129154104 _0_ MAC  --- 0 ACK 38 [0 4 0 0] 
x 2.129458104 _0_ MAC  --- 0 ACK 38 [0 4 0 0] 
r 2.129458118 _4_ MAC  --- 0 ACK 38 [0 4 0 0] 
s 2.129828104 _0_ MAC  --- 2 cbr 570 [13a 1 0 800] ------- [4:0 1:0 32 1] [2] 1 0
x 2.130417195 _0_ MAC  --- 2 cbr 570 [13a 1 0 800] ------- [4:0 1:0 32 1] [2] 1 0
r 2.130417198 _1_ MAC  --- 2 cbr 512 [13a 1 0 800] ------- [4:0 1:0 32 1] [2] 2 0
s 2.130427198 _1_ MAC  --- 0 ACK 38 [0 0 0 0] 
r 2.130442198 _1_ AGT  --- 2 cbr 512 [13a 1 0 800] ------- [4:0 1:0 32 1] [2] 2 0
x 2.130731198 _1_ MAC  --- 0 ACK 38 [0 0 0 0] 
r 2.130731202 _0_ MAC  --- 0 ACK 38 [0 0 0 0] 
s 2.192000000 _4_ AGT  --- 3 cbr 512 [0 0 0 0] ------- [4:0 1:0 32 0] [3] 0 0
s 2.192255000 _4_ MAC  --- 3 cbr 570 [13a 0 4 800] ------- [4:0 1:0 32 0] [3] 0 0
x 2.192844091 _4_ MAC  --- 3 cbr 570 [13a 0 4 800] ------- [4:0 1:0 32 0] [3] 0 0
r 2.192844104 _0_ MAC  --- 3 cbr 512 [13a 0 4 800] ------- [4:0 1:0 32 1] [3] 1 0
s 2.192854104 _0_ MAC  --- 0 ACK 38 [0 4 0 0] 
x 2.193158104 _0_ MAC  --- 0 ACK 38 [0 4 0 0] 
r 2.193158118 _4_ MAC  --- 0 ACK 38 [0 4 0 0] 
s 2.193348104 _0_ MAC  --- 3 cbr 570 [13a 1 0 800] ------- [4:0 1:0 32 1] [3] 1 0
x 2.193937195 _0_ MAC  --- 3 cbr 570 [13a 1 0 800] ------- [4:0 1:0 32 1] [3] 1 0
r 2.193937198 _1_ MAC  --- 3 cbr 512 [13a 1 0 800] ------- [4:0 1:0 32 1] [3] 2 0
s 2.193947198 _1_ MAC  --- 0 ACK 38 [0 0 0 0] 
r 2.193962198 _1_ AGT  --- 3 cbr 512 [13a 1 0 800] ------- [4:0 1:0 32 1] [3] 2 0
x 2.194251198 _1_ MAC  --- 0 ACK 38 [0 0 0 0] 
r 2.194251202 _0_ MAC  --- 0 ACK 38 [0 0 0 0] 
s 2.200190000 _9_ MAC  --- 0 BCN 72 [0 ffffffff 9 0] 
x 2.200766000 _9_ MAC  --- 0 BCN 72 [0 ffffffff 9 0] 
r 2.200766003 _8_ MAC  --- 0 BCN 72 [0 ffffffff 9 0] 
r 2.200766007 _7_ MAC  --- 0 BCN 72 [0 ffffffff 9 0] 
r 2.200766010 _6_ MAC  --- 0 BCN 72 [0 ffffffff 9 0] 
r 2.200766013 _5_ MAC  --- 0 BCN 72 [0 ffffffff 9 0] 
r 2.200766017 _4_ MAC  --- 0 BCN 72 [0 ffffffff 9 0] 
r 2.200766020 _3_ MAC  --- 0 BCN 72 [0 ffffffff 9 0] 
r 2.200766023 _2_ MAC  --- 0 BCN 72 [0 ffffffff 9 0] 
r 2.200766027 _1_ MAC  --- 0 BCN 72 [0 ffffffff 9 0] 
s 2.200816030 _0_ MAC  --- 0 BCN 72 [0 ffffffff 0 0] 
x 2.201392030 _0_ MAC  --- 0 BCN 72 [0 ffffffff 0 0] 
r 2.201392033 _1_ MAC  --- 0 BCN 72 [0 ffffffff 0 0] 
r 2.201392037 _2_ MAC  --- 0 BCN 72 [0 ffffffff 0 0] 
r 2.201392040 _3_ MAC  --- 0 BCN 72 [0 ffffffff 0 0] 
r 2.201392043 _4_ MAC  --- 0 BCN 72 [0 ffffffff 0 0] 
r 2.201392047 _5_ MAC  --- 0 BCN 72 [0 ffffffff 0 0] 
r 2.201392050 _6_ MAC  --- 0 BCN 72 [0 ffffffff 0 0] 
r 2.201392053 _7_ MAC  --- 0 BCN 72 [0 ffffffff 0 0] 
r 2.201392057 _8_ MAC  --- 0 BCN 72 [0 ffffffff 0 0] 
s 2.256000000 _4_ AGT  --- 4 cbr 512 [0 0 0 0] ------- [4:0 1:0 32 0] [4] 0 0
s 2.256655000 _4_ MAC  --- 4 cbr 570 [13a 0 4 800] ------- [4:0 1:0 32 0] [4] 0 0
x 2.257244091 _4_ MAC  --- 4 cbr 570 [13a 0 4 800] ------- [4:0 1:0 32 0] [4] 0 0
r 2.257244104 _0_ MAC  --- 4 cbr 512 [13a 0 4 800] ------- [4:0 1:0 32 1] [4] 1 0
s 2.257254104 _0_ MAC  --- 0 ACK 38 [0 4 0 0] 
x 2.257558104 _0_ MAC  --- 0 ACK 38 [0 4 0 0] 
r 2.257558118 _4_ MAC  --- 0 ACK 38 [0 4 0 0] 
s 2.258188104 _0_ MAC  --- 4 cbr 570 [13a 1 0 800] ------- [4:0 1:0 32 1] [4] 1 0
x 2.258777195 _0_ MAC  --- 4 cbr 570 [13a 1 0 800] ------- [4:0 1:0 32 1] [4] 1 0
r 2.258777198 _1_ MAC  --- 4 cbr 512 [13a 1 0 800] ------- [4:0 1:0 32 1] [4] 2 0
s 2.258787198 _1_ MAC  --- 0 ACK 38 [0 0 0 0] 
r 2.258802198 _1_ AGT  --- 4 cbr 512 [13a 1 0 800] ------- [4:0 1:0 32 1] [4] 2 0
x 2.259091198 _1_ MAC  --- 0 ACK 38 [0 0 0 0] 
r 2.259091202 _0_ MAC  --- 0 ACK 38 [0 0 0 0] 
s 2.320000000 _4_ AGT  --- 5 cbr 512 [0 0 0 0] ------- [4:0 1:0 32 0] [5] 0 0
s 2.320215000 _4_ MAC  --- 5 cbr 570 [13a 0 4 800] ------- [4:0 1:0 32 0] [5] 0 0
x 2.320804091 _4_ MAC  --- 5 cbr 570 [13a 0 4 800] ------- [4:0 1:0 32 0] [5] 0 0
r 2.320804104 _0_ MAC  --- 5 cbr 512 [13a 0 4 800] ------- [4:0 1:0 32 1] [5] 1 0
s 2.320814104 _0_ MAC  --- 0 ACK 38 [0 4 0 0] 
x 2.321118104 _0_ MAC  --- 0 ACK 38 [0 4 0 0] 
r 2.321118118 _4_ MAC  --- 0 ACK 38 [0 4 0 0] 